Variables = "x","y", "Velocity_x", "Velocity_y", "Velocity_whole value", "Pressure", "Absolute pressure", "Total pressure"
Zone i=298, j=42
 0.0000000e+000  0.0000000e+000  0.0000000e+000  0.0000000e+000  0.0000000e+000  3.1784267e+000  3.1784267e+000  3.1784267e+000 
 4.5623969e-002  0.0000000e+000  0.0000000e+000  0.0000000e+000  0.0000000e+000  2.7008629e+000  2.7008629e+000  2.7008629e+000 
 1.3641587e-001  0.0000000e+000  0.0000000e+000  0.0000000e+000  0.0000000e+000  1.7505087e+000  1.7505087e+000  1.7505087e+000 
 2.2629985e-001  0.0000000e+000  0.0000000e+000  0.0000000e+000  0.0000000e+000  1.9103658e+000  1.9103658e+000  1.9103658e+000 
 3.1528509e-001  0.0000000e+000  0.0000000e+000  0.0000000e+000  0.0000000e+000  1.8429091e+000  1.8429091e+000  1.8429091e+000 
 4.0338060e-001  0.0000000e+000  0.0000000e+000  0.0000000e+000  0.0000000e+000  1.8177385e+000  1.8177385e+000  1.8177385e+000 
 4.9059504e-001  0.0000000e+000  0.0000000e+000  0.0000000e+000  0.0000000e+000  1.7922012e+000  1.7922012e+000  1.7922012e+000 
 5.7693750e-001  0.0000000e+000  0.0000000e+000  0.0000000e+000  0.0000000e+000  1.7694054e+000  1.7694054e+000  1.7694054e+000 
 6.6241634e-001  0.0000000e+000  0.0000000e+000  0.0000000e+000  0.0000000e+000  1.7486770e+000  1.7486770e+000  1.7486770e+000 
 7.4704021e-001  0.0000000e+000  0.0000000e+000  0.0000000e+000  0.0000000e+000  1.7292470e+000  1.7292470e+000  1.7292470e+000 
 8.3081818e-001  0.0000000e+000  0.0000000e+000  0.0000000e+000  0.0000000e+000  1.7108197e+000  1.7108197e+000  1.7108197e+000 
 9.1375846e-001  0.0000000e+000  0.0000000e+000  0.0000000e+000  0.0000000e+000  1.6931956e+000  1.6931956e+000  1.6931956e+000 
 9.9586904e-001  0.0000000e+000  0.0000000e+000  0.0000000e+000  0.0000000e+000  1.6762547e+000  1.6762547e+000  1.6762547e+000 
 1.0771585e+000  0.0000000e+000  0.0000000e+000  0.0000000e+000  0.0000000e+000  1.6599159e+000  1.6599159e+000  1.6599159e+000 
 1.1576350e+000  0.0000000e+000  0.0000000e+000  0.0000000e+000  0.0000000e+000  1.6441226e+000  1.6441226e+000  1.6441226e+000 
 1.2373071e+000  0.0000000e+000  0.0000000e+000  0.0000000e+000  0.0000000e+000  1.6288314e+000  1.6288314e+000  1.6288314e+000 
 1.3161819e+000  0.0000000e+000  0.0000000e+000  0.0000000e+000  0.0000000e+000  1.6140070e+000  1.6140070e+000  1.6140070e+000 
 1.3942680e+000  0.0000000e+000  0.0000000e+000  0.0000000e+000  0.0000000e+000  1.5996207e+000  1.5996207e+000  1.5996207e+000 
 1.4715741e+000  0.0000000e+000  0.0000000e+000  0.0000000e+000  0.0000000e+000  1.5856446e+000  1.5856446e+000  1.5856446e+000 
 1.5481070e+000  0.0000000e+000  0.0000000e+000  0.0000000e+000  0.0000000e+000  1.5720574e+000  1.5720574e+000  1.5720574e+000 
 1.6238739e+000  0.0000000e+000  0.0000000e+000  0.0000000e+000  0.0000000e+000  1.5588357e+000  1.5588357e+000  1.5588357e+000 
 1.6988835e+000  0.0000000e+000  0.0000000e+000  0.0000000e+000  0.0000000e+000  1.5459605e+000  1.5459605e+000  1.5459605e+000 
 1.7731431e+000  0.0000000e+000  0.0000000e+000  0.0000000e+000  0.0000000e+000  1.5334138e+000  1.5334138e+000  1.5334138e+000 
 1.8466594e+000  0.0000000e+000  0.0000000e+000  0.0000000e+000  0.0000000e+000  1.5211781e+000  1.5211781e+000  1.5211781e+000 
 1.9194410e+000  0.0000000e+000  0.0000000e+000  0.0000000e+000  0.0000000e+000  1.5092386e+000  1.5092386e+000  1.5092386e+000 
 1.9914949e+000  0.0000000e+000  0.0000000e+000  0.0000000e+000  0.0000000e+000  1.4975808e+000  1.4975808e+000  1.4975808e+000 
 2.0628285e+000  0.0000000e+000  0.0000000e+000  0.0000000e+000  0.0000000e+000  1.4861901e+000  1.4861901e+000  1.4861901e+000 
 2.1334486e+000  0.0000000e+000  0.0000000e+000  0.0000000e+000  0.0000000e+000  1.4750564e+000  1.4750564e+000  1.4750564e+000 
 2.2033620e+000  0.0000000e+000  0.0000000e+000  0.0000000e+000  0.0000000e+000  1.4641665e+000  1.4641665e+000  1.4641665e+000 
 2.2725763e+000  0.0000000e+000  0.0000000e+000  0.0000000e+000  0.0000000e+000  1.4535110e+000  1.4535110e+000  1.4535110e+000 
 2.3410990e+000  0.0000000e+000  0.0000000e+000  0.0000000e+000  0.0000000e+000  1.4430794e+000  1.4430794e+000  1.4430794e+000 
 2.4089360e+000  0.0000000e+000  0.0000000e+000  0.0000000e+000  0.0000000e+000  1.4328628e+000  1.4328628e+000  1.4328628e+000 
 2.4760950e+000  0.0000000e+000  0.0000000e+000  0.0000000e+000  0.0000000e+000  1.4228529e+000  1.4228529e+000  1.4228529e+000 
 2.5425825e+000  0.0000000e+000  0.0000000e+000  0.0000000e+000  0.0000000e+000  1.4130429e+000  1.4130429e+000  1.4130429e+000 
 2.6084046e+000  0.0000000e+000  0.0000000e+000  0.0000000e+000  0.0000000e+000  1.4034337e+000  1.4034337e+000  1.4034337e+000 
 2.6735685e+000  0.0000000e+000  0.0000000e+000  0.0000000e+000  0.0000000e+000  1.3940082e+000  1.3940082e+000  1.3940082e+000 
 2.7380810e+000  0.0000000e+000  0.0000000e+000  0.0000000e+000  0.0000000e+000  1.3847650e+000  1.3847650e+000  1.3847650e+000 
 2.8019481e+000  0.0000000e+000  0.0000000e+000  0.0000000e+000  0.0000000e+000  1.3756974e+000  1.3756974e+000  1.3756974e+000 
 2.8651764e+000  0.0000000e+000  0.0000000e+000  0.0000000e+000  0.0000000e+000  1.3668041e+000  1.3668041e+000  1.3668041e+000 
 2.9277730e+000  0.0000000e+000  0.0000000e+000  0.0000000e+000  0.0000000e+000  1.3580779e+000  1.3580779e+000  1.3580779e+000 
 2.9897435e+000  0.0000000e+000  0.0000000e+000  0.0000000e+000  0.0000000e+000  1.3495177e+000  1.3495177e+000  1.3495177e+000 
 3.0510945e+000  0.0000000e+000  0.0000000e+000  0.0000000e+000  0.0000000e+000  1.3411202e+000  1.3411202e+000  1.3411202e+000 
 3.1118319e+000  0.0000000e+000  0.0000000e+000  0.0000000e+000  0.0000000e+000  1.3328817e+000  1.3328817e+000  1.3328817e+000 
 3.1719618e+000  0.0000000e+000  0.0000000e+000  0.0000000e+000  0.0000000e+000  1.3248026e+000  1.3248026e+000  1.3248026e+000 
 3.2314911e+000  0.0000000e+000  0.0000000e+000  0.0000000e+000  0.0000000e+000  1.3168808e+000  1.3168808e+000  1.3168808e+000 
 3.2904243e+000  0.0000000e+000  0.0000000e+000  0.0000000e+000  0.0000000e+000  1.3091141e+000  1.3091141e+000  1.3091141e+000 
 3.3487685e+000  0.0000000e+000  0.0000000e+000  0.0000000e+000  0.0000000e+000  1.3015054e+000  1.3015054e+000  1.3015054e+000 
 3.4065294e+000  0.0000000e+000  0.0000000e+000  0.0000000e+000  0.0000000e+000  1.2940511e+000  1.2940511e+000  1.2940511e+000 
 3.4637132e+000  0.0000000e+000  0.0000000e+000  0.0000000e+000  0.0000000e+000  1.2867552e+000  1.2867552e+000  1.2867552e+000 
 3.5203245e+000  0.0000000e+000  0.0000000e+000  0.0000000e+000  0.0000000e+000  1.2796187e+000  1.2796187e+000  1.2796187e+000 
 3.5763693e+000  0.0000000e+000  0.0000000e+000  0.0000000e+000  0.0000000e+000  1.2726470e+000  1.2726470e+000  1.2726470e+000 
 3.6318541e+000  0.0000000e+000  0.0000000e+000  0.0000000e+000  0.0000000e+000  1.2658374e+000  1.2658374e+000  1.2658374e+000 
 3.6867840e+000  0.0000000e+000  0.0000000e+000  0.0000000e+000  0.0000000e+000  1.2591941e+000  1.2591941e+000  1.2591941e+000 
 3.7411652e+000  0.0000000e+000  0.0000000e+000  0.0000000e+000  0.0000000e+000  1.2527206e+000  1.2527206e+000  1.2527206e+000 
 3.7950020e+000  0.0000000e+000  0.0000000e+000  0.0000000e+000  0.0000000e+000  1.2464225e+000  1.2464225e+000  1.2464225e+000 
 3.8483005e+000  0.0000000e+000  0.0000000e+000  0.0000000e+000  0.0000000e+000  1.2403053e+000  1.2403053e+000  1.2403053e+000 
 3.9010658e+000  0.0000000e+000  0.0000000e+000  0.0000000e+000  0.0000000e+000  1.2343739e+000  1.2343739e+000  1.2343739e+000 
 3.9533038e+000  0.0000000e+000  0.0000000e+000  0.0000000e+000  0.0000000e+000  1.2286344e+000  1.2286344e+000  1.2286344e+000 
 4.0050192e+000  0.0000000e+000  0.0000000e+000  0.0000000e+000  0.0000000e+000  1.2230955e+000  1.2230955e+000  1.2230955e+000 
 4.0562172e+000  0.0000000e+000  0.0000000e+000  0.0000000e+000  0.0000000e+000  1.2177626e+000  1.2177626e+000  1.2177626e+000 
 4.1069040e+000  0.0000000e+000  0.0000000e+000  0.0000000e+000  0.0000000e+000  1.2126460e+000  1.2126460e+000  1.2126460e+000 
 4.1570835e+000  0.0000000e+000  0.0000000e+000  0.0000000e+000  0.0000000e+000  1.2077534e+000  1.2077534e+000  1.2077534e+000 
 4.2067609e+000  0.0000000e+000  0.0000000e+000  0.0000000e+000  0.0000000e+000  1.2030951e+000  1.2030951e+000  1.2030951e+000 
 4.2559419e+000  0.0000000e+000  0.0000000e+000  0.0000000e+000  0.0000000e+000  1.1986786e+000  1.1986786e+000  1.1986786e+000 
 4.3046312e+000  0.0000000e+000  0.0000000e+000  0.0000000e+000  0.0000000e+000  1.1945193e+000  1.1945193e+000  1.1945193e+000 
 4.3528328e+000  0.0000000e+000  0.0000000e+000  0.0000000e+000  0.0000000e+000  1.1906216e+000  1.1906216e+000  1.1906216e+000 
 4.4005527e+000  0.0000000e+000  0.0000000e+000  0.0000000e+000  0.0000000e+000  1.1870015e+000  1.1870015e+000  1.1870015e+000 
 4.4477959e+000  0.0000000e+000  0.0000000e+000  0.0000000e+000  0.0000000e+000  1.1836681e+000  1.1836681e+000  1.1836681e+000 
 4.4945660e+000  0.0000000e+000  0.0000000e+000  0.0000000e+000  0.0000000e+000  1.1806321e+000  1.1806321e+000  1.1806321e+000 
 4.5408678e+000  0.0000000e+000  0.0000000e+000  0.0000000e+000  0.0000000e+000  1.1779060e+000  1.1779060e+000  1.1779060e+000 
 4.5867071e+000  0.0000000e+000  0.0000000e+000  0.0000000e+000  0.0000000e+000  1.1755000e+000  1.1755000e+000  1.1755000e+000 
 4.6320887e+000  0.0000000e+000  0.0000000e+000  0.0000000e+000  0.0000000e+000  1.1734239e+000  1.1734239e+000  1.1734239e+000 
 4.6770163e+000  0.0000000e+000  0.0000000e+000  0.0000000e+000  0.0000000e+000  1.1716876e+000  1.1716876e+000  1.1716876e+000 
 4.7214937e+000  0.0000000e+000  0.0000000e+000  0.0000000e+000  0.0000000e+000  1.1703007e+000  1.1703007e+000  1.1703007e+000 
 4.7655277e+000  0.0000000e+000  0.0000000e+000  0.0000000e+000  0.0000000e+000  1.1692690e+000  1.1692690e+000  1.1692690e+000 
 4.8091211e+000  0.0000000e+000  0.0000000e+000  0.0000000e+000  0.0000000e+000  1.1685997e+000  1.1685997e+000  1.1685997e+000 
 4.8522778e+000  0.0000000e+000  0.0000000e+000  0.0000000e+000  0.0000000e+000  1.1682992e+000  1.1682992e+000  1.1682992e+000 
 4.8950028e+000  0.0000000e+000  0.0000000e+000  0.0000000e+000  0.0000000e+000  1.1683543e+000  1.1683543e+000  1.1683543e+000 
 4.9373007e+000  0.0000000e+000  0.0000000e+000  0.0000000e+000  0.0000000e+000  1.1688266e+000  1.1688266e+000  1.1688266e+000 
 4.9791718e+000  0.0000000e+000  0.0000000e+000  0.0000000e+000  0.0000000e+000  1.1694340e+000  1.1694340e+000  1.1694340e+000 
 5.0174122e+000  4.7373036e-005  0.0000000e+000  0.0000000e+000  0.0000000e+000  1.1709137e+000  1.1709137e+000  1.1709137e+000 
 5.0525880e+000  2.4072173e-004  0.0000000e+000  0.0000000e+000  0.0000000e+000  1.1726031e+000  1.1726031e+000  1.1726031e+000 
 5.0884962e+000  6.3765503e-004  0.0000000e+000  0.0000000e+000  0.0000000e+000  1.1742407e+000  1.1742407e+000  1.1742407e+000 
 5.1251369e+000  1.2504414e-003  0.0000000e+000  0.0000000e+000  0.0000000e+000  1.1760135e+000  1.1760135e+000  1.1760135e+000 
 5.1625195e+000  2.0922748e-003  0.0000000e+000  0.0000000e+000  0.0000000e+000  1.1778893e+000  1.1778893e+000  1.1778893e+000 
 5.2006640e+000  3.1768526e-003  0.0000000e+000  0.0000000e+000  0.0000000e+000  1.1798788e+000  1.1798788e+000  1.1798788e+000 
 5.2395611e+000  4.5178575e-003  0.0000000e+000  0.0000000e+000  0.0000000e+000  1.1819854e+000  1.1819854e+000  1.1819854e+000 
 5.2792482e+000  6.1312215e-003  0.0000000e+000  0.0000000e+000  0.0000000e+000  1.1842190e+000  1.1842190e+000  1.1842190e+000 
 5.3197465e+000  8.0330959e-003  0.0000000e+000  0.0000000e+000  0.0000000e+000  1.1865897e+000  1.1865897e+000  1.1865897e+000 
 5.3610363e+000  1.0238484e-002  0.0000000e+000  0.0000000e+000  0.0000000e+000  1.1891086e+000  1.1891086e+000  1.1891086e+000 
 5.4031553e+000  1.2766261e-002  0.0000000e+000  0.0000000e+000  0.0000000e+000  1.1917766e+000  1.1917766e+000  1.1917766e+000 
 5.4461331e+000  1.5635721e-002  0.0000000e+000  0.0000000e+000  0.0000000e+000  1.1946158e+000  1.1946158e+000  1.1946158e+000 
 5.4899611e+000  1.8864846e-002  0.0000000e+000  0.0000000e+000  0.0000000e+000  1.1976248e+000  1.1976248e+000  1.1976248e+000 
 5.5346584e+000  2.2474311e-002  0.0000000e+000  0.0000000e+000  0.0000000e+000  1.2008148e+000  1.2008148e+000  1.2008148e+000 
 5.5802345e+000  2.6485045e-002  0.0000000e+000  0.0000000e+000  0.0000000e+000  1.2041930e+000  1.2041930e+000  1.2041930e+000 
 5.6267190e+000  3.0921029e-002  0.0000000e+000  0.0000000e+000  0.0000000e+000  1.2077589e+000  1.2077589e+000  1.2077589e+000 
 5.6741219e+000  3.5805516e-002  0.0000000e+000  0.0000000e+000  0.0000000e+000  1.2115234e+000  1.2115234e+000  1.2115234e+000 
 5.7224417e+000  4.1162070e-002  0.0000000e+000  0.0000000e+000  0.0000000e+000  1.2154766e+000  1.2154766e+000  1.2154766e+000 
 5.7716999e+000  4.7017291e-002  0.0000000e+000  0.0000000e+000  0.0000000e+000  1.2196213e+000  1.2196213e+000  1.2196213e+000 
 5.8219147e+000  5.3399529e-002  0.0000000e+000  0.0000000e+000  0.0000000e+000  1.2239498e+000  1.2239498e+000  1.2239498e+000 
 5.8731055e+000  6.0338661e-002  0.0000000e+000  0.0000000e+000  0.0000000e+000  1.2284539e+000  1.2284539e+000  1.2284539e+000 
 5.9252734e+000  6.7863554e-002  0.0000000e+000  0.0000000e+000  0.0000000e+000  1.2331220e+000  1.2331220e+000  1.2331220e+000 
 5.9784379e+000  7.6007493e-002  0.0000000e+000  0.0000000e+000  0.0000000e+000  1.2379345e+000  1.2379345e+000  1.2379345e+000 
 6.0325980e+000  8.4802195e-002  0.0000000e+000  0.0000000e+000  0.0000000e+000  1.2428802e+000  1.2428802e+000  1.2428802e+000 
 6.0877838e+000  9.4286665e-002  0.0000000e+000  0.0000000e+000  0.0000000e+000  1.2479274e+000  1.2479274e+000  1.2479274e+000 
 6.1440139e+000  1.0450004e-001  0.0000000e+000  0.0000000e+000  0.0000000e+000  1.2530659e+000  1.2530659e+000  1.2530659e+000 
 6.2012892e+000  1.1548080e-001  0.0000000e+000  0.0000000e+000  0.0000000e+000  1.2582583e+000  1.2582583e+000  1.2582583e+000 
 6.2596092e+000  1.2726891e-001  0.0000000e+000  0.0000000e+000  0.0000000e+000  1.2634854e+000  1.2634854e+000  1.2634854e+000 
 6.3189840e+000  1.3990925e-001  0.0000000e+000  0.0000000e+000  0.0000000e+000  1.2687105e+000  1.2687105e+000  1.2687105e+000 
 6.3794432e+000  1.5345335e-001  0.0000000e+000  0.0000000e+000  0.0000000e+000  1.2739136e+000  1.2739136e+000  1.2739136e+000 
 6.4409866e+000  1.6795000e-001  0.0000000e+000  0.0000000e+000  0.0000000e+000  1.2790618e+000  1.2790618e+000  1.2790618e+000 
 6.5036139e+000  1.8345080e-001  0.0000000e+000  0.0000000e+000  0.0000000e+000  1.2841296e+000  1.2841296e+000  1.2841296e+000 
 6.5673151e+000  2.0000800e-001  0.0000000e+000  0.0000000e+000  0.0000000e+000  1.2890892e+000  1.2890892e+000  1.2890892e+000 
 6.6321001e+000  2.1768264e-001  0.0000000e+000  0.0000000e+000  0.0000000e+000  1.2939175e+000  1.2939175e+000  1.2939175e+000 
 6.6979885e+000  2.3654304e-001  0.0000000e+000  0.0000000e+000  0.0000000e+000  1.2985952e+000  1.2985952e+000  1.2985952e+000 
 6.7649803e+000  2.5665683e-001  0.0000000e+000  0.0000000e+000  0.0000000e+000  1.3031039e+000  1.3031039e+000  1.3031039e+000 
 6.8330474e+000  2.7808774e-001  0.0000000e+000  0.0000000e+000  0.0000000e+000  1.3074280e+000  1.3074280e+000  1.3074280e+000 
 6.9021883e+000  3.0091360e-001  0.0000000e+000  0.0000000e+000  0.0000000e+000  1.3115541e+000  1.3115541e+000  1.3115541e+000 
 6.9724226e+000  3.2522506e-001  0.0000000e+000  0.0000000e+000  0.0000000e+000  1.3154768e+000  1.3154768e+000  1.3154768e+000 
 7.0437107e+000  3.5109949e-001  0.0000000e+000  0.0000000e+000  0.0000000e+000  1.3191904e+000  1.3191904e+000  1.3191904e+000 
 7.1160159e+000  3.7862116e-001  0.0000000e+000  0.0000000e+000  0.0000000e+000  1.3226894e+000  1.3226894e+000  1.3226894e+000 
 7.1893368e+000  4.0789628e-001  0.0000000e+000  0.0000000e+000  0.0000000e+000  1.3259772e+000  1.3259772e+000  1.3259772e+000 
 7.2636337e+000  4.3902454e-001  0.0000000e+000  0.0000000e+000  0.0000000e+000  1.3290565e+000  1.3290565e+000  1.3290565e+000 
 7.3388681e+000  4.7211635e-001  0.0000000e+000  0.0000000e+000  0.0000000e+000  1.3319316e+000  1.3319316e+000  1.3319316e+000 
 7.4150205e+000  5.0730187e-001  0.0000000e+000  0.0000000e+000  0.0000000e+000  1.3346111e+000  1.3346111e+000  1.3346111e+000 
 7.4920125e+000  5.4469615e-001  0.0000000e+000  0.0000000e+000  0.0000000e+000  1.3371029e+000  1.3371029e+000  1.3371029e+000 
 7.5697861e+000  5.8443874e-001  0.0000000e+000  0.0000000e+000  0.0000000e+000  1.3394152e+000  1.3394152e+000  1.3394152e+000 
 7.6482625e+000  6.2667364e-001  0.0000000e+000  0.0000000e+000  0.0000000e+000  1.3415602e+000  1.3415602e+000  1.3415602e+000 
 7.7273455e+000  6.7155266e-001  0.0000000e+000  0.0000000e+000  0.0000000e+000  1.3435475e+000  1.3435475e+000  1.3435475e+000 
 7.8069458e+000  7.1925247e-001  0.0000000e+000  0.0000000e+000  0.0000000e+000  1.3453887e+000  1.3453887e+000  1.3453887e+000 
 7.8869257e+000  7.6994562e-001  0.0000000e+000  0.0000000e+000  0.0000000e+000  1.3470948e+000  1.3470948e+000  1.3470948e+000 
 7.9671307e+000  8.2381701e-001  0.0000000e+000  0.0000000e+000  0.0000000e+000  1.3486768e+000  1.3486768e+000  1.3486768e+000 
 8.0473843e+000  8.8106835e-001  0.0000000e+000  0.0000000e+000  0.0000000e+000  1.3501452e+000  1.3501452e+000  1.3501452e+000 
 8.1274834e+000  9.4191456e-001  0.0000000e+000  0.0000000e+000  0.0000000e+000  1.3515110e+000  1.3515110e+000  1.3515110e+000 
 8.2071915e+000  1.0065894e+000  0.0000000e+000  0.0000000e+000  0.0000000e+000  1.3527837e+000  1.3527837e+000  1.3527837e+000 
 8.2862253e+000  1.0753336e+000  0.0000000e+000  0.0000000e+000  0.0000000e+000  1.3539742e+000  1.3539742e+000  1.3539742e+000 
 8.3642340e+000  1.1483796e+000  0.0000000e+000  0.0000000e+000  0.0000000e+000  1.3550910e+000  1.3550910e+000  1.3550910e+000 
 8.4408340e+000  1.2259920e+000  0.0000000e+000  0.0000000e+000  0.0000000e+000  1.3561437e+000  1.3561437e+000  1.3561437e+000 
 8.5155716e+000  1.3084309e+000  0.0000000e+000  0.0000000e+000  0.0000000e+000  1.3571410e+000  1.3571410e+000  1.3571410e+000 
 8.5879002e+000  1.3959379e+000  0.0000000e+000  0.0000000e+000  0.0000000e+000  1.3580908e+000  1.3580908e+000  1.3580908e+000 
 8.6572056e+000  1.4887619e+000  0.0000000e+000  0.0000000e+000  0.0000000e+000  1.3590002e+000  1.3590002e+000  1.3590002e+000 
 8.7227764e+000  1.5871205e+000  0.0000000e+000  0.0000000e+000  0.0000000e+000  1.3598773e+000  1.3598773e+000  1.3598773e+000 
 8.7837830e+000  1.6911585e+000  0.0000000e+000  0.0000000e+000  0.0000000e+000  1.3607275e+000  1.3607275e+000  1.3607275e+000 
 8.8393021e+000  1.8009670e+000  0.0000000e+000  0.0000000e+000  0.0000000e+000  1.3615581e+000  1.3615581e+000  1.3615581e+000 
 8.8883228e+000  1.9165549e+000  0.0000000e+000  0.0000000e+000  0.0000000e+000  1.3623741e+000  1.3623741e+000  1.3623741e+000 
 8.9297400e+000  2.0377693e+000  0.0000000e+000  0.0000000e+000  0.0000000e+000  1.3631881e+000  1.3631881e+000  1.3631881e+000 
 8.9624043e+000  2.1643105e+000  0.0000000e+000  0.0000000e+000  0.0000000e+000  1.3639879e+000  1.3639879e+000  1.3639879e+000 
 8.9852562e+000  2.2956924e+000  0.0000000e+000  0.0000000e+000  0.0000000e+000  1.3648527e+000  1.3648527e+000  1.3648527e+000 
 8.9970531e+000  2.4312587e+000  0.0000000e+000  0.0000000e+000  0.0000000e+000  1.3656464e+000  1.3656464e+000  1.3656464e+000 
 8.9970551e+000  2.5687289e+000  0.0000000e+000  0.0000000e+000  0.0000000e+000  1.3666005e+000  1.3666005e+000  1.3666005e+000 
 8.9852600e+000  2.7042804e+000  0.0000000e+000  0.0000000e+000  0.0000000e+000  1.3674735e+000  1.3674735e+000  1.3674735e+000 
 8.9624119e+000  2.8356564e+000  0.0000000e+000  0.0000000e+000  0.0000000e+000  1.3684950e+000  1.3684950e+000  1.3684950e+000 
 8.9297495e+000  2.9621973e+000  0.0000000e+000  0.0000000e+000  0.0000000e+000  1.3695486e+000  1.3695486e+000  1.3695486e+000 
 8.8883381e+000  3.0834074e+000  0.0000000e+000  0.0000000e+000  0.0000000e+000  1.3707229e+000  1.3707229e+000  1.3707229e+000 
 8.8393221e+000  3.1989911e+000  0.0000000e+000  0.0000000e+000  0.0000000e+000  1.3720281e+000  1.3720281e+000  1.3720281e+000 
 8.7838030e+000  3.3088059e+000  0.0000000e+000  0.0000000e+000  0.0000000e+000  1.3735003e+000  1.3735003e+000  1.3735003e+000 
 8.7227964e+000  3.4128480e+000  0.0000000e+000  0.0000000e+000  0.0000000e+000  1.3751726e+000  1.3751726e+000  1.3751726e+000 
 8.6572247e+000  3.5112100e+000  0.0000000e+000  0.0000000e+000  0.0000000e+000  1.3770800e+000  1.3770800e+000  1.3770800e+000 
 8.5879192e+000  3.6040375e+000  0.0000000e+000  0.0000000e+000  0.0000000e+000  1.3792565e+000  1.3792565e+000  1.3792565e+000 
 8.5155907e+000  3.6915469e+000  0.0000000e+000  0.0000000e+000  0.0000000e+000  1.3817333e+000  1.3817333e+000  1.3817333e+000 
 8.4408636e+000  3.7739775e+000  0.0000000e+000  0.0000000e+000  0.0000000e+000  1.3845375e+000  1.3845375e+000  1.3845375e+000 
 8.3642635e+000  3.8515911e+000  0.0000000e+000  0.0000000e+000  0.0000000e+000  1.3876847e+000  1.3876847e+000  1.3876847e+000 
 8.2862453e+000  3.9246485e+000  0.0000000e+000  0.0000000e+000  0.0000000e+000  1.3911808e+000  1.3911808e+000  1.3911808e+000 
 8.2072201e+000  3.9933858e+000  0.0000000e+000  0.0000000e+000  0.0000000e+000  1.3950053e+000  1.3950053e+000  1.3950053e+000 
 8.1275139e+000  4.0580616e+000  0.0000000e+000  0.0000000e+000  0.0000000e+000  1.3991214e+000  1.3991214e+000  1.3991214e+000 
 8.0474052e+000  4.1189175e+000  0.0000000e+000  0.0000000e+000  0.0000000e+000  1.4034600e+000  1.4034600e+000  1.4034600e+000 
 7.9671507e+000  4.1761703e+000  0.0000000e+000  0.0000000e+000  0.0000000e+000  1.4079229e+000  1.4079229e+000  1.4079229e+000 
 7.8869457e+000  4.2300420e+000  0.0000000e+000  0.0000000e+000  0.0000000e+000  1.4123821e+000  1.4123821e+000  1.4123821e+000 
 7.8069754e+000  4.2807302e+000  0.0000000e+000  0.0000000e+000  0.0000000e+000  1.4166751e+000  1.4166751e+000  1.4166751e+000 
 7.7273846e+000  4.3284254e+000  0.0000000e+000  0.0000000e+000  0.0000000e+000  1.4206201e+000  1.4206201e+000  1.4206201e+000 
 7.6482921e+000  4.3733106e+000  0.0000000e+000  0.0000000e+000  0.0000000e+000  1.4240109e+000  1.4240109e+000  1.4240109e+000 
 7.5698156e+000  4.4155464e+000  0.0000000e+000  0.0000000e+000  0.0000000e+000  1.4266351e+000  1.4266351e+000  1.4266351e+000 
 7.4920421e+000  4.4552889e+000  0.0000000e+000  0.0000000e+000  0.0000000e+000  1.4282806e+000  1.4282806e+000  1.4282806e+000 
 7.4150500e+000  4.4926839e+000  0.0000000e+000  0.0000000e+000  0.0000000e+000  1.4287452e+000  1.4287452e+000  1.4287452e+000 
 7.3389072e+000  4.5278654e+000  0.0000000e+000  0.0000000e+000  0.0000000e+000  1.4278543e+000  1.4278543e+000  1.4278543e+000 
 7.2636633e+000  4.5609627e+000  0.0000000e+000  0.0000000e+000  0.0000000e+000  1.4254569e+000  1.4254569e+000  1.4254569e+000 
 7.1893663e+000  4.5920920e+000  0.0000000e+000  0.0000000e+000  0.0000000e+000  1.4214481e+000  1.4214481e+000  1.4214481e+000 
 7.1160455e+000  4.6213675e+000  0.0000000e+000  0.0000000e+000  0.0000000e+000  1.4157602e+000  1.4157602e+000  1.4157602e+000 
 7.0437307e+000  4.6488934e+000  0.0000000e+000  0.0000000e+000  0.0000000e+000  1.4083660e+000  1.4083660e+000  1.4083660e+000 
 6.9724522e+000  4.6747646e+000  0.0000000e+000  0.0000000e+000  0.0000000e+000  1.3992908e+000  1.3992908e+000  1.3992908e+000 
 6.9022269e+000  4.6990728e+000  0.0000000e+000  0.0000000e+000  0.0000000e+000  1.3885801e+000  1.3885801e+000  1.3885801e+000 
 6.8330865e+000  4.7219000e+000  0.0000000e+000  0.0000000e+000  0.0000000e+000  1.3763338e+000  1.3763338e+000  1.3763338e+000 
 6.7650199e+000  4.7433314e+000  0.0000000e+000  0.0000000e+000  0.0000000e+000  1.3626727e+000  1.3626727e+000  1.3626727e+000 
 6.6980276e+000  4.7634454e+000  0.0000000e+000  0.0000000e+000  0.0000000e+000  1.3477095e+000  1.3477095e+000  1.3477095e+000 
 6.6321287e+000  4.7823091e+000  0.0000000e+000  0.0000000e+000  0.0000000e+000  1.3316075e+000  1.3316075e+000  1.3316075e+000 
 6.5673342e+000  4.7999868e+000  0.0000000e+000  0.0000000e+000  0.0000000e+000  1.3145280e+000  1.3145280e+000  1.3145280e+000 
 6.5036330e+000  4.8165445e+000  0.0000000e+000  0.0000000e+000  0.0000000e+000  1.2966179e+000  1.2966179e+000  1.2966179e+000 
 6.4410062e+000  4.8320456e+000  0.0000000e+000  0.0000000e+000  0.0000000e+000  1.2780259e+000  1.2780259e+000  1.2780259e+000 
 6.3794727e+000  4.8465400e+000  0.0000000e+000  0.0000000e+000  0.0000000e+000  1.2589070e+000  1.2589070e+000  1.2589070e+000 
 6.3190231e+000  4.8600817e+000  0.0000000e+000  0.0000000e+000  0.0000000e+000  1.2393959e+000  1.2393959e+000  1.2393959e+000 
 6.2596388e+000  4.8727250e+000  0.0000000e+000  0.0000000e+000  0.0000000e+000  1.2196124e+000  1.2196124e+000  1.2196124e+000 
 6.2013187e+000  4.8845139e+000  0.0000000e+000  0.0000000e+000  0.0000000e+000  1.1996775e+000  1.1996775e+000  1.1996775e+000 
 6.1440430e+000  4.8954945e+000  0.0000000e+000  0.0000000e+000  0.0000000e+000  1.1796829e+000  1.1796829e+000  1.1796829e+000 
 6.0878124e+000  4.9057083e+000  0.0000000e+000  0.0000000e+000  0.0000000e+000  1.1597272e+000  1.1597272e+000  1.1597272e+000 
 6.0326271e+000  4.9151926e+000  0.0000000e+000  0.0000000e+000  0.0000000e+000  1.1398823e+000  1.1398823e+000  1.1398823e+000 
 5.9784670e+000  4.9239879e+000  0.0000000e+000  0.0000000e+000  0.0000000e+000  1.1202193e+000  1.1202193e+000  1.1202193e+000 
 5.9253030e+000  4.9321318e+000  0.0000000e+000  0.0000000e+000  0.0000000e+000  1.1007937e+000  1.1007937e+000  1.1007937e+000 
 5.8731346e+000  4.9396572e+000  0.0000000e+000  0.0000000e+000  0.0000000e+000  1.0816257e+000  1.0816257e+000  1.0816257e+000 
 5.8219533e+000  4.9465952e+000  0.0000000e+000  0.0000000e+000  0.0000000e+000  1.0627974e+000  1.0627974e+000  1.0627974e+000 
 5.7717381e+000  4.9529777e+000  0.0000000e+000  0.0000000e+000  0.0000000e+000  1.0442895e+000  1.0442895e+000  1.0442895e+000 
 5.7224803e+000  4.9588332e+000  0.0000000e+000  0.0000000e+000  0.0000000e+000  1.0261581e+000  1.0261581e+000  1.0261581e+000 
 5.6741605e+000  4.9641900e+000  0.0000000e+000  0.0000000e+000  0.0000000e+000  1.0084096e+000  1.0084096e+000  1.0084096e+000 
 5.6267581e+000  4.9690752e+000  0.0000000e+000  0.0000000e+000  0.0000000e+000  9.9104226e-001  9.9104226e-001  9.9104226e-001 
 5.5802736e+000  4.9735117e+000  0.0000000e+000  0.0000000e+000  0.0000000e+000  9.7407556e-001  9.7407556e-001  9.7407556e-001 
 5.5346880e+000  4.9775233e+000  0.0000000e+000  0.0000000e+000  0.0000000e+000  9.5750880e-001  9.5750880e-001  9.5750880e-001 
 5.4899812e+000  4.9811339e+000  0.0000000e+000  0.0000000e+000  0.0000000e+000  9.4133186e-001  9.4133186e-001  9.4133186e-001 
 5.4461532e+000  4.9843631e+000  0.0000000e+000  0.0000000e+000  0.0000000e+000  9.2553782e-001  9.2553782e-001  9.2553782e-001 
 5.4031849e+000  4.9872322e+000  0.0000000e+000  0.0000000e+000  0.0000000e+000  9.1012555e-001  9.1012555e-001  9.1012555e-001 
 5.3610649e+000  4.9897599e+000  0.0000000e+000  0.0000000e+000  0.0000000e+000  8.9507616e-001  8.9507616e-001  8.9507616e-001 
 5.3197756e+000  4.9919653e+000  0.0000000e+000  0.0000000e+000  0.0000000e+000  8.8036454e-001  8.8036454e-001  8.8036454e-001 
 5.2792778e+000  4.9938674e+000  0.0000000e+000  0.0000000e+000  0.0000000e+000  8.6599469e-001  8.6599469e-001  8.6599469e-001 
 5.2395802e+000  4.9954815e+000  0.0000000e+000  0.0000000e+000  0.0000000e+000  8.5190302e-001  8.5190302e-001  8.5190302e-001 
 5.2006836e+000  4.9968224e+000  0.0000000e+000  0.0000000e+000  0.0000000e+000  8.3811891e-001  8.3811891e-001  8.3811891e-001 
 5.1625490e+000  4.9979067e+000  0.0000000e+000  0.0000000e+000  0.0000000e+000  8.2459682e-001  8.2459682e-001  8.2459682e-001 
 5.1251760e+000  4.9987488e+000  0.0000000e+000  0.0000000e+000  0.0000000e+000  8.1128138e-001  8.1128138e-001  8.1128138e-001 
 5.0885353e+000  4.9993620e+000  0.0000000e+000  0.0000000e+000  0.0000000e+000  7.9819733e-001  7.9819733e-001  7.9819733e-001 
 5.0526171e+000  4.9997587e+000  0.0000000e+000  0.0000000e+000  0.0000000e+000  7.8520817e-001  7.8520817e-001  7.8520817e-001 
 5.0174217e+000  4.9999523e+000  0.0000000e+000  0.0000000e+000  0.0000000e+000  7.7258068e-001  7.7258068e-001  7.7258068e-001 
 4.9791718e+000  5.0000000e+000  0.0000000e+000  0.0000000e+000  0.0000000e+000  7.5782955e-001  7.5782955e-001  7.5782955e-001 
 4.9373007e+000  5.0000000e+000  0.0000000e+000  0.0000000e+000  0.0000000e+000  7.4088597e-001  7.4088597e-001  7.4088597e-001 
 4.8950028e+000  5.0000000e+000  0.0000000e+000  0.0000000e+000  0.0000000e+000  7.2485858e-001  7.2485858e-001  7.2485858e-001 
 4.8522778e+000  5.0000000e+000  0.0000000e+000  0.0000000e+000  0.0000000e+000  7.0917094e-001  7.0917094e-001  7.0917094e-001 
 4.8091211e+000  5.0000000e+000  0.0000000e+000  0.0000000e+000  0.0000000e+000  6.9390702e-001  6.9390702e-001  6.9390702e-001 
 4.7655277e+000  5.0000000e+000  0.0000000e+000  0.0000000e+000  0.0000000e+000  6.7909354e-001  6.7909354e-001  6.7909354e-001 
 4.7214937e+000  5.0000000e+000  0.0000000e+000  0.0000000e+000  0.0000000e+000  6.6478139e-001  6.6478139e-001  6.6478139e-001 
 4.6770163e+000  5.0000000e+000  0.0000000e+000  0.0000000e+000  0.0000000e+000  6.5093392e-001  6.5093392e-001  6.5093392e-001 
 4.6320887e+000  5.0000000e+000  0.0000000e+000  0.0000000e+000  0.0000000e+000  6.3757390e-001  6.3757390e-001  6.3757390e-001 
 4.5867071e+000  5.0000000e+000  0.0000000e+000  0.0000000e+000  0.0000000e+000  6.2470484e-001  6.2470484e-001  6.2470484e-001 
 4.5408678e+000  5.0000000e+000  0.0000000e+000  0.0000000e+000  0.0000000e+000  6.1228150e-001  6.1228150e-001  6.1228150e-001 